# epsilon and Z* of atoms 1 5 9 13
   3.36526460   -0.00000000    0.00000000    0.00000000    3.37199275    0.00000000    0.00000000    0.00000000    3.35469131 
   2.12405165    0.00000000   -0.06865773   -0.00000000    2.20720332   -0.00000000   -0.01457009   -0.00000000    2.13473041 
   3.95196251   -0.03362804   -0.17673720    0.08871959    3.91210722    0.22893992    0.16772318   -0.26081181    3.90583651 
  -1.58887975    0.00000000   -0.05496314    0.00000000   -2.71671464   -0.00000000    0.00456505    0.00000000   -1.73314005 
  -2.24356721    0.04409435    0.51484992    0.00306687   -1.70129795   -0.01147840    0.50828237   -0.03363396   -2.15371343 
