160
17

1
    0.0058318135898890     0.0081234198619046     0.0000000000000000
   -0.0662013818954509    -0.0619690671864911     0.0078623634799189
    0.0042892252118558    -0.0020381835963627     0.0001507246716431
   -0.0002150924574859     0.0011474224443186     0.0001059659510502
    0.0003336351245262     0.0008214965328119    -0.0000160157248545
   -0.0011313575399361    -0.0022672243974009    -0.0001400025640830
    0.0005060399249461    -0.0007924879018014     0.0000397917511101
   -0.0000447125112130     0.0009406254404495    -0.0000456524112328
    0.0001359740973807     0.0003806959563670    -0.0000400302211388
   -0.0047863428985687     0.0068662187178196     0.0008852220751098
    0.0015617604405673     0.0010456211497769    -0.0004938568466205
    0.0003273888622523     0.0103978159043492     0.0009743192082499
    0.0005655632331009     0.0003224185510744     0.0003348576751777
   -0.0007299357861317     0.0006133426681560    -0.0003674869327207
    0.0005964967320604     0.0003041565022950     0.0000502418294721
   -0.0003987495911419     0.0008623845805811     0.0002120957824048
    0.0003496230225743     0.0001268939579868    -0.0001010389596576
    0.0024870707078128     0.0036731814940844    -0.0032669374761418
   -0.0004934340279552     0.0002254508667371    -0.0000077342904604
   -0.0024077773772237     0.0013404210601526     0.0014588147726635
    0.0013030406374068     0.0011729173313947     0.0006847427777905
    0.0016567990152218     0.0042586642151708     0.0034120894368596
   -0.0002583758810444     0.0000593950636138     0.0003150020679503
   -0.0015823753475727     0.0007441790018264    -0.0012816233990008
    0.0010605841027964     0.0013410855053605    -0.0009895358804474
    0.0041317839430793    -0.0059489114506619    -0.0039197552626260
    0.0041401103070834    -0.0059822567474980     0.0051110894114663
   -0.0000616182923886     0.0009602857084171    -0.0000182142007020
   -0.0000635817888816     0.0009610517947143     0.0000489019470247
    0.0014987395317323    -0.0025401694432376     0.0032956231000816
    0.0014971017472910    -0.0025479858716476    -0.0041770567513260
   -0.0000355941254101     0.0008929349885147     0.0000991720665013
   -0.0000340154118710     0.0008952186344633    -0.0001439571658423
   -0.0038538388445404    -0.0080571256805646    -0.0017325903589363
    0.0412733990495250     0.0231468030131641    -0.0025823992794319
    0.0007339780784262     0.0037881374795655     0.0006212657473229
   -0.0014682199613236     0.0026321965654953     0.0003446057534511
   -0.0005058131346734    -0.0014580536425894    -0.0000798925721800
    0.0021276274694452    -0.0004803473472847     0.0013926077717851
    0.0007424952716872     0.0013450392213399    -0.0002800024717400
   -0.0008003298033158     0.0008475178716118    -0.0002032880033899
   -0.0115626938069598    -0.0067739907529532    -0.0165609446122696
    0.0034886462311716    -0.0007046565972343    -0.0020792533097767
   -0.0000142794476380     0.0024277009771506     0.0005710585853368
    0.0004394590776096     0.0007346769146648     0.0004929037632535
   -0.0160311677549108     0.0021665970321247     0.0168014538662232
    0.0042082527311272    -0.0004000872851604     0.0026515217399339
    0.0000419317634960     0.0034364557051204    -0.0010581354261193
    0.0004762918098328     0.0010618919913905    -0.0005267676828555
    0.0241142784855068     0.0090252856372268     0.0035950342305559
   -0.0147392278865549    -0.0151189333889790     0.0026159369578856
   -0.0005475695844024     0.0011380122875092    -0.0002058629191766
    0.0008137663760399     0.0049528618224060    -0.0003374536994619
    0.0021065281952995    -0.0011468589251316    -0.0009820229505502
   -0.0016237569884089    -0.0014087796249662    -0.0005949086856769
   -0.0006394478542555     0.0006186173542922     0.0001635832602303
    0.0004192040370711     0.0014987276257722     0.0000248637736217
   -0.0031997612173070     0.0006764369019421     0.0182403361968427
    0.0022800114655472    -0.0014688617506861     0.0004858793231842
   -0.0011638833915502     0.0025293517812541    -0.0005059744992492
    0.0010208591716298     0.0009961349066728    -0.0004640185932542
   -0.0093285121537060     0.0066176127551987    -0.0235990893515669
    0.0027032656029068    -0.0007831721214316    -0.0008096245058631
   -0.0004669927698880     0.0027490550899239     0.0008989517894472
    0.0007495573664462     0.0011000325995176     0.0006108289964090
    0.0057968832027601     0.0109942607789155     0.0045494041655827
   -0.0018008214699966     0.0020529936470766     0.0005544679093993
    0.0002235470095053    -0.0017132589640190     0.0000244396061703
   -0.0002664590545866    -0.0008181920221482     0.0000141490770479
    0.0032342421639515     0.0082429268283628     0.0020626046285825
   -0.0011628430979111     0.0017470565248764    -0.0004752513455826
    0.0002625773053156    -0.0010170458832436     0.0000111624515423
   -0.0002613562765200    -0.0007500050666005    -0.0000430165228856
    0.0020388035976587    -0.0052817165761488    -0.0018485196996605
   -0.0008099000010053    -0.0007519182083976    -0.0005384403293329
    0.0019332276858952    -0.0062282697350815     0.0026865815302802
   -0.0008283172926590    -0.0004202167935263     0.0001982582393165
    0.0021575350559663    -0.0036659616492239     0.0034189221725998
   -0.0007479931838779    -0.0005567000554743     0.0005467115465759
    0.0003597028255257    -0.0027375168842668    -0.0022227343057500
   -0.0007438006631392    -0.0004310555631423    -0.0002158998809324
    0.0007980198900821    -0.0013368420798998    -0.0001717987931881
   -0.0027102402611520    -0.0059590234158178    -0.0002683306851181
   -0.0027859046143538    -0.0056536691835500    -0.0000273570516045
    0.0022276435017113    -0.0022237949718970     0.0005856654789307
    0.0003402675526856     0.0000004151023145     0.0001760547576833
   -0.0005710345665463    -0.0010821531966135    -0.0001130898640598
   -0.0005599664964333    -0.0011174455787742     0.0003580955481166
    0.0005818291830154    -0.0002372821788456     0.0001256175886420
    0.0126813791346776     0.0117243120592356    -0.0022715193919380
   -0.0056103497804252     0.0060273210758984    -0.0012027597263737
    0.0000989977882245    -0.0016782042745672    -0.0000578836999720
   -0.0000165666260190    -0.0009095064848272     0.0000034940240681
    0.0002470639681521     0.0026083907344911    -0.0005532757825345
   -0.0002227255158527     0.0018025919878482     0.0001756401812639
    0.0000562507293032    -0.0008448738829530     0.0000349725744451
   -0.0000098274209093    -0.0006904416697190     0.0000826909699999
    0.0044040918280798     0.0020921236086044     0.0017091647325095
   -0.0059645701825938    -0.0004750914428635     0.0029151371583174
    0.0002037076505900    -0.0017306617214082    -0.0006853160204335
    0.0001727682143136    -0.0003738272163258    -0.0004257458684985
    0.0005464427689389     0.0007584348695532    -0.0011524726301658
   -0.0019269938714120    -0.0001590514256685    -0.0018484685608393
   -0.0002440935401085    -0.0010876734378511     0.0005290661827865
    0.0001795176158528    -0.0004080004166201     0.0002751358937708
    0.0008379687933810    -0.0011188802260718    -0.0082484403839950
   -0.0003162332934339     0.0013652665104404     0.0003986578485515
    0.0004547127123947    -0.0017101469463794    -0.0002322458415601
   -0.0006007082556514    -0.0011937280190919     0.0004707833735133
   -0.0000926259883113     0.0020548658524121     0.0028666842703244
   -0.0002827283166496     0.0006168647705893     0.0003338122595703
    0.0005183073434303    -0.0010495370079464    -0.0002055213409272
   -0.0002563300404500    -0.0004996222398150    -0.0001195634423553
    0.0042370471593440     0.0106212618882680     0.0023038263355907
   -0.0062130134366423    -0.0004516529990838    -0.0021892501031125
    0.0003178432804674    -0.0011895695492981     0.0002623863898917
    0.0000829733055243    -0.0010124976030849     0.0000124228847750
    0.0003956926409215     0.0014025865816887    -0.0004096219126070
   -0.0008226050195942     0.0005670358958052     0.0004693492262945
   -0.0001035645184255    -0.0010218039688875    -0.0001918262366070
   -0.0000112021514017    -0.0001486245102422     0.0001979783939239
   -0.0007965863495741    -0.0094691854945749     0.0109236108559846
   -0.0014773084601371     0.0014080561367411    -0.0005316477794527
    0.0005436612903296    -0.0022714959134473    -0.0001894600146663
   -0.0007890529409447    -0.0009039852664479    -0.0007475732139310
    0.0008556324411701     0.0002476993297297    -0.0033358441753221
   -0.0004946763998506     0.0002810141484559    -0.0005035472853366
    0.0006714926017340    -0.0008762551803152     0.0007072898132947
   -0.0002194432695090    -0.0004620571911520     0.0001473315204680
    0.0095502157125503     0.0053210457122271    -0.0005286070554399
   -0.0070433641459676    -0.0004726810053310     0.0023726419740946
   -0.0000411597028343    -0.0020991544818586    -0.0003374967222674
   -0.0001053321780339    -0.0007883074022812    -0.0000921161466614
    0.0019459743933775     0.0016913536955592    -0.0019111214616614
   -0.0011151370504136     0.0005122485715644    -0.0004589838386763
   -0.0004840834119000    -0.0010595223979809     0.0004174400142404
   -0.0000133311270037    -0.0004689882200914     0.0000838932606164
    0.0004168587093044    -0.0004673508405250    -0.0000640328554035
   -0.0007962433641515    -0.0012255083857685     0.0009271906707907
   -0.0028942950541996    -0.0020278764107614    -0.0049671171629915
    0.0005124237322146     0.0033296176366150     0.0001333397605269
    0.0005742205935892    -0.0005759382505747    -0.0005266127582049
   -0.0002919528434215    -0.0008963760113831    -0.0003368739709873
   -0.0019918560678474    -0.0005280230482227     0.0054163764444127
    0.0007967390306547     0.0005701831310696     0.0002945863273227
    0.0001844886208936    -0.0036019069451869     0.0007116570475203
   -0.0002351752830988    -0.0004858441442109     0.0001073679876609
    0.0100149628681784    -0.0035344919862040    -0.0053135286264907
   -0.0029321637321125    -0.0001827701252546    -0.0008822541096993
   -0.0002884077903359    -0.0009963584104268    -0.0004699679479041
   -0.0001173829161334    -0.0003324235162973    -0.0001629145784797
    0.0013046335900695     0.0006958952926408     0.0008544589993430
   -0.0008654063128679     0.0002591423197329     0.0001896193641953
    0.0177285705590024     0.0220078276098714    -0.0069777558504427
   -0.0018560279791718     0.0024188319566614    -0.0026275559295859
    0.0006228557701577    -0.0009574326111211    -0.0000880128122781
   -0.0007812975102235    -0.0013694602750678    -0.0004346124221994
    0.0001306775628496     0.0011647743437051    -0.0013714064531189
    0.0001420168150588     0.0005201434049891    -0.0001465182261965
    0.0004810748402762    -0.0009793333770800     0.0002799555070446
   -0.0000837335060265    -0.0002942219566923    -0.0001369088817564

1
   -0.0058318135898890    -0.0081234198619046     0.0000000000000000
    0.0664979471358845     0.0632749367474055    -0.0096071116357815
   -0.0042802848559852     0.0020431980047544    -0.0001498301045557
    0.0002106859273976    -0.0011460266183294    -0.0001033054441315
   -0.0003378346187230    -0.0008196153202352     0.0000153385605965
    0.0011221939758109     0.0022704657212597     0.0001228545594562
   -0.0005038032839067     0.0007919214845110    -0.0000356933225225
    0.0000451046201151    -0.0009394175044277     0.0000398830556384
   -0.0001352136383415    -0.0003798623529068     0.0000389521095463
    0.0047335166375619    -0.0067762706452683    -0.0008980489535649
   -0.0015468848515419    -0.0010317933021374     0.0004934792845007
   -0.0003112945642008    -0.0105395771284631    -0.0010059249148777
   -0.0005681469687797    -0.0003371004351139    -0.0003333944505722
    0.0007237491961518    -0.0006223549496080     0.0003591891175158
   -0.0005941222430528    -0.0003024081143389    -0.0000497450340244
    0.0004000868560481    -0.0008435074808835    -0.0002318972438090
   -0.0003500844610022    -0.0001273192545878     0.0000999225897317
   -0.0024754078413162    -0.0036582629540451     0.0032543679645665
    0.0004987004065231    -0.0002332461839951     0.0000062131163570
    0.0024066051873927    -0.0013385014700884    -0.0014591734639997
   -0.0013250302675487    -0.0012002462084317    -0.0007105650567980
   -0.0016579611151095    -0.0042557758115391    -0.0034095779300968
    0.0002571288466137    -0.0000571392564170    -0.0003095945598616
    0.0015840007024871    -0.0007516701405474     0.0012835314903664
   -0.0010906864097592    -0.0013743408107736     0.0010181183975505
   -0.0041330182734397     0.0059874685430466     0.0039336620177562
   -0.0041243636603527     0.0059540175876929    -0.0050711346420448
    0.0000649060837693    -0.0009609358306520     0.0000180918446734
    0.0000629231075582    -0.0009601770212639    -0.0000464828617923
   -0.0014734976952902     0.0025424610988532    -0.0033042580667619
   -0.0014748457307357     0.0025348803252621     0.0041738384437566
    0.0000349028467129    -0.0008965662109318    -0.0000983321886776
    0.0000364331497804    -0.0008943339586072     0.0001466657305176
    0.0039426368127170     0.0080472923711311     0.0017645258331876
   -0.0405594469551660    -0.0227957695622987     0.0025344795971133
   -0.0007309360923328    -0.0037850249829887    -0.0006217640290458
    0.0014773546745382    -0.0026438334136287    -0.0003434269226575
    0.0005196099903915     0.0014635000798390     0.0000886419576275
   -0.0021157005516285     0.0004836865857617    -0.0013981486200711
   -0.0007450917899300    -0.0013480960833343     0.0002824774765150
    0.0008022945620877    -0.0008465663857450     0.0001972285985579
    0.0114405525559361     0.0066991233194611     0.0164508647583139
   -0.0034516810959822     0.0007131249232274     0.0020682269875404
    0.0000167489767437    -0.0024287373777109    -0.0005808172025420
   -0.0004442447991956    -0.0007399498003124    -0.0004906237449545
    0.0158989207133373    -0.0022316420535502    -0.0167601096943487
   -0.0041899866987882     0.0004007137308026    -0.0026540908834811
   -0.0000342273749948    -0.0034886483801553     0.0010786056629906
   -0.0004877346946494    -0.0010751335257523     0.0005287914943442
   -0.0243125119977024    -0.0091354226240849    -0.0035050003552886
    0.0146160403841792     0.0152648761405416    -0.0026055672445826
    0.0005545308219349    -0.0011518171361400     0.0002093712062451
   -0.0007881609161694    -0.0048979672617502     0.0003315515490545
   -0.0020911406421790     0.0011527396780485     0.0010237763821454
    0.0016284903949119     0.0014031050641065     0.0005935417985133
    0.0006373447895339    -0.0006238327158342    -0.0001650169206503
   -0.0004173759339739    -0.0014947720906085    -0.0000300801403043
    0.0032479660695982    -0.0006176713516351    -0.0183639816112373
   -0.0022925304320104     0.0014693183326965    -0.0005025347339531
    0.0011521715856895    -0.0025160970791414     0.0004995397014996
   -0.0010193287332129    -0.0009907956063233     0.0004629107740489
    0.0094135968012445    -0.0066259704739116     0.0237359774006171
   -0.0027416186319241     0.0007848110918024     0.0008095648707921
    0.0004578634302748    -0.0027040061284653    -0.0008839994167055
   -0.0007473688714389    -0.0010925695637107    -0.0006098748326275
   -0.0056876053882241    -0.0109354291844938    -0.0043643879573113
    0.0018452920688977    -0.0020540663155204    -0.0005584969626944
   -0.0002160641025175     0.0017102377602128    -0.0000278441624815
    0.0002677028625891     0.0008183349858352    -0.0000145130059533
   -0.0032970176636742    -0.0082812318974904    -0.0019969722490857
    0.0011643391573235    -0.0017452199046104     0.0004857501638801
   -0.0002591372647872     0.0010181209794495    -0.0000116163143880
    0.0002609493242017     0.0007485166109854     0.0000416202183969
   -0.0020192803153858     0.0052842911742124     0.0018500896670114
    0.0008123853302662     0.0007597428838729     0.0005406142627596
   -0.0019739907211914     0.0062429843738052    -0.0027031682781871
    0.0008327367870382     0.0004225467056255    -0.0001982580211134
   -0.0021371036248169     0.0036519775519311    -0.0034093167580488
    0.0007485034882270     0.0005630493060219    -0.0005469801161102
   -0.0003660364794918     0.0027362922775029     0.0022143225833429
    0.0007409415420431     0.0004362437126570     0.0002182749470671
   -0.0008036499438694     0.0013351537973811     0.0001746428614783
    0.0026901916311571     0.0059345839430107     0.0002698429307179
    0.0028090831504055     0.0056809883196578     0.0000092073533953
   -0.0022274371671100     0.0022125452069913    -0.0005842165968414
   -0.0003450586120429     0.0000091247511621    -0.0001710658192283
    0.0005725593313721     0.0010822332779150     0.0001113907316175
    0.0005582595005149     0.0011154560613216    -0.0003588409127548
   -0.0005787679137784     0.0002359347583178    -0.0001235789358229
   -0.0120960461345154    -0.0117177637005695     0.0020772232211317
    0.0056053990736089    -0.0061023777329868     0.0012119754784180
   -0.0001006481030073     0.0016742461936627     0.0000593390958634
    0.0000130402738190     0.0009100724376248    -0.0000056863749969
   -0.0002449994263283    -0.0025982220637599     0.0005456566818410
    0.0002254623324768    -0.0018120622746212    -0.0001861654667050
   -0.0000562305136289     0.0008444285888886    -0.0000337301947398
    0.0000118593819288     0.0006923658763371    -0.0000815641705192
   -0.0043904467625910    -0.0020734166251577    -0.0017050250659689
    0.0059237224874821     0.0004913127800302    -0.0029120646974995
   -0.0002085023951275     0.0017159862325661     0.0006869779417523
   -0.0001757901823900     0.0003720873679149     0.0004223758398287
   -0.0005520421510388    -0.0007548458337117     0.0011703545109820
    0.0019355205856622     0.0001606109353933     0.0018651344205177
    0.0002412426466117     0.0010867944782399    -0.0005270191288919
   -0.0001780548666104     0.0004063836298707    -0.0002767035635459
   -0.0004646084819772     0.0016041514244547     0.0085159766708270
    0.0003201312578751    -0.0013710083343862    -0.0004039384444891
   -0.0004444352832244     0.0016793064924466     0.0002390560995916
    0.0006014473581328     0.0011970634221469    -0.0004733743520318
    0.0001064271996262    -0.0020172222345858    -0.0028541455679402
    0.0002669954139231    -0.0006163509018479    -0.0003406054380937
   -0.0005222376896329     0.0010474306686005     0.0002055814392701
    0.0002570415362381     0.0005014866349198     0.0001203892174086
   -0.0041832895444283    -0.0107034852001745    -0.0023169488228812
    0.0062072810595131     0.0004466509750006     0.0021954263865979
   -0.0003370071667627     0.0011406632307821    -0.0002595490671064
   -0.0000818579206397     0.0010087024436282    -0.0000100458916664
   -0.0004011967878360    -0.0013883535889747     0.0003843432886447
    0.0008169668177664    -0.0005673945403595    -0.0004647302461694
    0.0001060234940873     0.0010182335781080     0.0001903797705236
    0.0000121301053693     0.0001496972274055    -0.0001953270501729
    0.0009249430663792     0.0095788853626763    -0.0109099509340582
    0.0014899174961820    -0.0014134318774364     0.0005397894043339
   -0.0005489962985837     0.0022681240802274     0.0001891999688407
    0.0007877469241918     0.0009025377964398     0.0007501539804567
   -0.0008464211191699    -0.0002448887470500     0.0033434983138413
    0.0004838543045095    -0.0002814092296077     0.0005014416643132
   -0.0006717599773569     0.0008728536001513    -0.0006993150469781
    0.0002163836662388     0.0004605591377096    -0.0001490097891572
   -0.0096129770628658    -0.0054014545649065     0.0005172100153538
    0.0070874293818277     0.0004971537831584    -0.0023823654704969
    0.0000504624619166     0.0021312605517197     0.0003473352421628
    0.0001034067095760     0.0007928185217225     0.0000939473837495
   -0.0019348433369768    -0.0017101396974547     0.0019140432960345
    0.0010878875108695    -0.0005227520424649     0.0004396330802179
    0.0004800506741954     0.0010628814566886    -0.0004171625194251
    0.0000114668683182     0.0004701291875470    -0.0000836498605492
   -0.0004167129247807     0.0004844634566437     0.0000551897522522
    0.0008014291686682     0.0012324980853679    -0.0009393798753813
    0.0029036068068682     0.0020380537696857     0.0050561831709226
   -0.0005048462587164    -0.0033424981619642    -0.0001372637943294
   -0.0005728338771621     0.0005806679171710     0.0005295813943508
    0.0002937830986618     0.0008980668913584     0.0003369552181036
    0.0019818624133595     0.0005317626616729    -0.0054150515191680
   -0.0007896764234079    -0.0005691259475703    -0.0002883736926719
   -0.0001884455463385     0.0035804996676621    -0.0007061750852456
    0.0002241931175033     0.0004851993404852    -0.0001084049564687
   -0.0101104981937239     0.0034605594389594     0.0053282272930997
    0.0029477806753361     0.0001776058250510     0.0008948469136830
    0.0002919048186261     0.0009953795923479     0.0004785002809385
    0.0001135997324999     0.0003323917081903     0.0001621309536291
   -0.0013071529719855    -0.0007083881481458    -0.0008288694447709
    0.0008612099938791    -0.0002603398145924    -0.0001876054351461
   -0.0195469217624725    -0.0238927750474376     0.0082008465028447
    0.0018751504644721    -0.0024195424348294     0.0026352935360129
   -0.0006300214075216     0.0009899150250735     0.0000886071835018
    0.0007873427318424     0.0013697051471468     0.0004374491927185
   -0.0001333812991089    -0.0011861616151370     0.0013850178646290
   -0.0001361953421299    -0.0005231032524775     0.0001512116652218
   -0.0004741472017959     0.0009809787990949    -0.0002770108085586
    0.0000818857740862     0.0002926087849532     0.0001381507064515

1
    0.0000000000000000     0.0000000000000000     0.0100000000000000
    0.0156630223971784     0.0000000000000021    -0.1175640815559398
    0.0002607724196553     0.0000000000000258    -0.0013293299305839
    0.0001800187920938     0.0000000000000240    -0.0003287295703566
   -0.0000268649276398     0.0000000000000263    -0.0002268238097682
   -0.0002140739571275     0.0000000000000118     0.0084251458870204
    0.0000673157876752     0.0000000000000292     0.0008997406029213
   -0.0000737565313149     0.0000000000000132     0.0006102620724937
   -0.0000674257503369     0.0000000000000230     0.0001797047294051
    0.0016110982792608    -0.0000695770892795    -0.0041230866389819
   -0.0001385479674513    -0.0005128536236808    -0.0007360645561394
    0.0016110982792346     0.0000695770892535    -0.0041230866389606
   -0.0001385479674679     0.0005128536236666    -0.0007360645561493
   -0.0001206717021736    -0.0003773554941669     0.0024346578219682
   -0.0000424770317074     0.0000924626259816     0.0006423575699915
   -0.0001206717021974     0.0003773554941323     0.0024346578219880
   -0.0000424770316954    -0.0000924626260099     0.0006423575699935
   -0.0018210849896172    -0.0028847950170097     0.0013937888609352
    0.0005882439641443    -0.0008055360709625     0.0001045751249813
   -0.0018210849895986     0.0028847950170032     0.0013937888609352
    0.0005882439641780     0.0008055360709469     0.0001045751249830
    0.0015390592490929     0.0028948792293185     0.0013836357975466
   -0.0005946975819367     0.0004339407185924     0.0001078610345139
    0.0015390592491193    -0.0028948792293194     0.0013836357975518
   -0.0005946975819394    -0.0004339407185983     0.0001078610344876
   -0.0087844244901312     0.0000000000000040     0.0038699591327890
    0.0067782352918265    -0.0000000000000121     0.0039022964564608
   -0.0000819618009908    -0.0000000000000176    -0.0001473264660263
    0.0000306740054450    -0.0000000000000058    -0.0001472217829389
    0.0071353129836942    -0.0000000000000043     0.0035632193107734
   -0.0056268487121837    -0.0000000000000257     0.0035762696063166
    0.0002479164308048     0.0000000000000013     0.0000773489131184
   -0.0001686686560013    -0.0000000000000041     0.0000775484860842
   -0.0023246608229668    -0.0001764513702899    -0.0106207749585316
   -0.0028204064596781    -0.0019052133022888    -0.0214110317936629
    0.0001535133561697    -0.0002888770756323    -0.0010326533733937
   -0.0004839456322769    -0.0001525012991703    -0.0008102093221648
    0.0015748745008698    -0.0006787802118303     0.0034631835306267
   -0.0002887532021325     0.0000209243536021     0.0064165600822176
   -0.0001110751333270     0.0002677833385118     0.0010976200444794
    0.0001666801021393     0.0002279915555239     0.0010835969224815
    0.0023663405126696    -0.0228056978432286     0.0196591464077711
   -0.0010477505388883    -0.0005743061170021     0.0010765558125019
    0.0001690224821931     0.0019428359290504    -0.0003771071147831
   -0.0001602451291777     0.0005676291590453    -0.0001460038987740
   -0.0056144222436645     0.0237108484054365     0.0184637897732957
    0.0007711570157390     0.0006247662374911     0.0002933155478699
    0.0001415176137962    -0.0018135548021420     0.0001558857296469
    0.0000612914807746    -0.0002475016736879    -0.0000265622906204
   -0.0023246608229881     0.0001764513702925    -0.0106207749585432
   -0.0028204064597336     0.0019052133022573    -0.0214110317937011
    0.0001535133561667     0.0002888770757621    -0.0010326533733896
   -0.0004839456323178     0.0001525012993059    -0.0008102093221448
    0.0015748745008628     0.0006787802118449     0.0034631835306214
   -0.0002887532021390    -0.0000209243536175     0.0064165600822039
   -0.0001110751333188    -0.0002677833384338     0.0010976200444929
    0.0001666801021032    -0.0002279915554541     0.0010835969224949
    0.0023663405126131     0.0228056978432064     0.0196591464077815
   -0.0010477505389087     0.0005743061169762     0.0010765558125239
    0.0001690224821445    -0.0019428359289918    -0.0003771071148005
   -0.0001602451292069    -0.0005676291589280    -0.0001460038988170
   -0.0056144222437468    -0.0237108484054969     0.0184637897733352
    0.0007711570157338    -0.0006247662375548     0.0002933155478735
    0.0001415176137447     0.0018135548022848     0.0001558857296557
    0.0000612914807449     0.0002475016738111    -0.0000265622905861
    0.0079028944744064    -0.0000000000000383     0.0434271789791519
    0.0008490362119623    -0.0000000000000324    -0.0002854509847026
   -0.0000420236032656     0.0000000000000246     0.0000641261465834
    0.0001858706281084    -0.0000000000000091     0.0000350179584082
    0.0030766166143211    -0.0000000000000318    -0.0088690723104689
   -0.0001335821824937    -0.0000000000000400    -0.0000295676024801
   -0.0001160231672376    -0.0000000000000358     0.0000295284545145
   -0.0000952006847538    -0.0000000000000280    -0.0000902074865533
    0.0005965157505267    -0.0043054016969111    -0.0009470658879721
    0.0001245477547510    -0.0003596126347543     0.0002212566968622
    0.0005965157505461     0.0043054016968755    -0.0009470658879429
    0.0001245477547823     0.0003596126347157     0.0002212566968904
   -0.0007886129047419     0.0027248366493837    -0.0015574087881536
   -0.0000997517086262     0.0008476793631813    -0.0004815300217482
   -0.0007886129047578    -0.0027248366493864    -0.0015574087881699
   -0.0000997517086516    -0.0008476793632112    -0.0004815300217900
    0.0010190933310764    -0.0016211777005032     0.0017386621862240
    0.0001117585753537    -0.0013260030204173     0.0030543403365155
    0.0010190933311210     0.0016211777004782     0.0017386621862602
    0.0001117585753585     0.0013260030203919     0.0030543403365294
   -0.0003688894204005     0.0006900753680445    -0.0012120465039512
    0.0001834850784177     0.0007397619309397    -0.0010597666575822
   -0.0003688894203969    -0.0006900753681306    -0.0012120465039422
    0.0001834850784022    -0.0007397619310260    -0.0010597666575675
   -0.0034605373732599    -0.0000000000000286     0.0109670763856763
   -0.0022789876777497    -0.0000000000000281     0.0047822145898201
    0.0000460856397182    -0.0000000000000633     0.0003888350706021
   -0.0000220843500908    -0.0000000000000394     0.0002932809015499
    0.0000842550492863    -0.0000000000000297    -0.0022214371544034
    0.0001324082611968    -0.0000000000000307    -0.0017752216027569
    0.0000070117987211    -0.0000000000000333    -0.0003642999505646
   -0.0000361585426724    -0.0000000000000526    -0.0003571679394263
   -0.0042453268536126     0.0047222265512314     0.0037335379875126
    0.0032932624722132     0.0011449947870916    -0.0007615507605648
   -0.0005058695964710    -0.0007358818671834     0.0006083917358834
    0.0000282564600240    -0.0003405472179876     0.0001519219191772
    0.0021660834788369    -0.0014760663478393    -0.0033845904001473
   -0.0011132117648304    -0.0005295924894965    -0.0008859975507153
    0.0003395588793504     0.0005008032964248    -0.0004660724507769
   -0.0000316635738636     0.0002744793566826    -0.0001565002493214
   -0.0067813260441050    -0.0061020320653469     0.0051192180431193
    0.0025126674647319    -0.0001518103890373    -0.0004187649570332
   -0.0003751799603534     0.0004926145524341     0.0003308314138140
    0.0002112335337330     0.0002351151885891    -0.0000616569064379
    0.0046087662201944     0.0026272740727774    -0.0068383943556143
   -0.0007208696276524    -0.0000030736016511    -0.0004381938723950
    0.0004263305837255    -0.0002266325241567    -0.0004210423270122