phonopy:
  version: "2.47.1"
  frequency_unit_conversion_factor: 15.633302
  symmetry_tolerance: 1.00000e-05
  configuration:
    cell_filename: "POSCAR"
    create_displacements: ".true."
    dim: "2 2 2"

physical_unit:
  atomic_mass: "AMU"
  length: "angstrom"

space_group:
  type: "Pnma"
  number: 62
  Hall_symbol: "-P 2ac 2n"

supercell_matrix:
- [   2,   0,   0 ]
- [   0,   2,   0 ]
- [   0,   0,   2 ]

primitive_cell:
  lattice:
  - [     4.942699713617819,     0.000000000000000,     0.000000000000000 ] # a
  - [     0.000000000000000,     6.884929431668882,     0.000000000000000 ] # b
  - [     0.000000000000000,     0.000000000000000,     4.763680991723656 ] # c
  points:
  - symbol: Mg # 1
    coordinates: [  0.558564618667272,  0.250000000000000,  0.515571141800977 ]
    mass: 24.305000
  - symbol: Mg # 2
    coordinates: [  0.441435381332728,  0.750000000000000,  0.484428858199023 ]
    mass: 24.305000
  - symbol: Mg # 3
    coordinates: [  0.941435381332728,  0.750000000000000,  0.015571141800977 ]
    mass: 24.305000
  - symbol: Mg # 4
    coordinates: [  0.058564618667272,  0.250000000000000,  0.984428858199023 ]
    mass: 24.305000
  - symbol: Si # 5
    coordinates: [  0.000000000000000,  0.500000000000000,  0.500000000000000 ]
    mass: 28.085500
  - symbol: Si # 6
    coordinates: [  0.500000000000000,  0.500000000000000,  0.000000000000000 ]
    mass: 28.085500
  - symbol: Si # 7
    coordinates: [  0.000000000000000,  0.000000000000000,  0.500000000000000 ]
    mass: 28.085500
  - symbol: Si # 8
    coordinates: [  0.500000000000000,  0.000000000000000,  0.000000000000000 ]
    mass: 28.085500
  - symbol: O # 9
    coordinates: [  0.465711015499411,  0.250000000000000,  0.104690803937027 ]
    mass: 15.999400
  - symbol: O # 10
    coordinates: [  0.534288984500589,  0.750000000000000,  0.895309196062973 ]
    mass: 15.999400
  - symbol: O # 11
    coordinates: [  0.034288984500589,  0.750000000000000,  0.604690803937027 ]
    mass: 15.999400
  - symbol: O # 12
    coordinates: [  0.965711015499411,  0.250000000000000,  0.395309196062973 ]
    mass: 15.999400
  - symbol: O # 13
    coordinates: [  0.200596866342054,  0.553873579658983,  0.195222203598609 ]
    mass: 15.999400
  - symbol: O # 14
    coordinates: [  0.799403133657946,  0.446126420341017,  0.804777796401391 ]
    mass: 15.999400
  - symbol: O # 15
    coordinates: [  0.299403133657946,  0.446126420341017,  0.695222203598609 ]
    mass: 15.999400
  - symbol: O # 16
    coordinates: [  0.700596866342054,  0.553873579658983,  0.304777796401391 ]
    mass: 15.999400
  - symbol: O # 17
    coordinates: [  0.799403133657946,  0.053873579658983,  0.804777796401391 ]
    mass: 15.999400
  - symbol: O # 18
    coordinates: [  0.200596866342054,  0.946126420341017,  0.195222203598609 ]
    mass: 15.999400
  - symbol: O # 19
    coordinates: [  0.700596866342054,  0.946126420341017,  0.304777796401391 ]
    mass: 15.999400
  - symbol: O # 20
    coordinates: [  0.299403133657946,  0.053873579658983,  0.695222203598609 ]
    mass: 15.999400
  reciprocal_lattice: # without 2pi
  - [     0.202318582544042,     0.000000000000000,     0.000000000000000 ] # a*
  - [     0.000000000000000,     0.145244771195513,     0.000000000000000 ] # b*
  - [     0.000000000000000,     0.000000000000000,     0.209921697472476 ] # c*

unit_cell:
  lattice:
  - [     4.942699713617819,     0.000000000000000,     0.000000000000000 ] # a
  - [     0.000000000000000,     6.884929431668882,     0.000000000000000 ] # b
  - [     0.000000000000000,     0.000000000000000,     4.763680991723656 ] # c
  points:
  - symbol: Mg # 1
    coordinates: [  0.558564618667272,  0.250000000000000,  0.515571141800977 ]
    mass: 24.305000
    reduced_to: 1
  - symbol: Mg # 2
    coordinates: [  0.441435381332728,  0.750000000000000,  0.484428858199023 ]
    mass: 24.305000
    reduced_to: 2
  - symbol: Mg # 3
    coordinates: [  0.941435381332728,  0.750000000000000,  0.015571141800977 ]
    mass: 24.305000
    reduced_to: 3
  - symbol: Mg # 4
    coordinates: [  0.058564618667272,  0.250000000000000,  0.984428858199023 ]
    mass: 24.305000
    reduced_to: 4
  - symbol: Si # 5
    coordinates: [  0.000000000000000,  0.500000000000000,  0.500000000000000 ]
    mass: 28.085500
    reduced_to: 5
  - symbol: Si # 6
    coordinates: [  0.500000000000000,  0.500000000000000,  0.000000000000000 ]
    mass: 28.085500
    reduced_to: 6
  - symbol: Si # 7
    coordinates: [  0.000000000000000,  0.000000000000000,  0.500000000000000 ]
    mass: 28.085500
    reduced_to: 7
  - symbol: Si # 8
    coordinates: [  0.500000000000000,  0.000000000000000,  0.000000000000000 ]
    mass: 28.085500
    reduced_to: 8
  - symbol: O # 9
    coordinates: [  0.465711015499411,  0.250000000000000,  0.104690803937027 ]
    mass: 15.999400
    reduced_to: 9
  - symbol: O # 10
    coordinates: [  0.534288984500589,  0.750000000000000,  0.895309196062973 ]
    mass: 15.999400
    reduced_to: 10
  - symbol: O # 11
    coordinates: [  0.034288984500589,  0.750000000000000,  0.604690803937027 ]
    mass: 15.999400
    reduced_to: 11
  - symbol: O # 12
    coordinates: [  0.965711015499411,  0.250000000000000,  0.395309196062973 ]
    mass: 15.999400
    reduced_to: 12
  - symbol: O # 13
    coordinates: [  0.200596866342054,  0.553873579658983,  0.195222203598609 ]
    mass: 15.999400
    reduced_to: 13
  - symbol: O # 14
    coordinates: [  0.799403133657946,  0.446126420341017,  0.804777796401391 ]
    mass: 15.999400
    reduced_to: 14
  - symbol: O # 15
    coordinates: [  0.299403133657946,  0.446126420341017,  0.695222203598609 ]
    mass: 15.999400
    reduced_to: 15
  - symbol: O # 16
    coordinates: [  0.700596866342054,  0.553873579658983,  0.304777796401391 ]
    mass: 15.999400
    reduced_to: 16
  - symbol: O # 17
    coordinates: [  0.799403133657946,  0.053873579658983,  0.804777796401391 ]
    mass: 15.999400
    reduced_to: 17
  - symbol: O # 18
    coordinates: [  0.200596866342054,  0.946126420341017,  0.195222203598609 ]
    mass: 15.999400
    reduced_to: 18
  - symbol: O # 19
    coordinates: [  0.700596866342054,  0.946126420341017,  0.304777796401391 ]
    mass: 15.999400
    reduced_to: 19
  - symbol: O # 20
    coordinates: [  0.299403133657946,  0.053873579658983,  0.695222203598609 ]
    mass: 15.999400
    reduced_to: 20

supercell:
  lattice:
  - [     9.885399427235638,     0.000000000000000,     0.000000000000000 ] # a
  - [     0.000000000000000,    13.769858863337765,     0.000000000000000 ] # b
  - [     0.000000000000000,     0.000000000000000,     9.527361983447312 ] # c
  points:
  - symbol: Mg # 1
    coordinates: [  0.279282309333636,  0.125000000000000,  0.257785570900489 ]
    mass: 24.305000
    reduced_to: 1
  - symbol: Mg # 2
    coordinates: [  0.779282309333636,  0.125000000000000,  0.257785570900489 ]
    mass: 24.305000
    reduced_to: 1
  - symbol: Mg # 3
    coordinates: [  0.279282309333636,  0.625000000000000,  0.257785570900489 ]
    mass: 24.305000
    reduced_to: 1
  - symbol: Mg # 4
    coordinates: [  0.779282309333636,  0.625000000000000,  0.257785570900489 ]
    mass: 24.305000
    reduced_to: 1
  - symbol: Mg # 5
    coordinates: [  0.279282309333636,  0.125000000000000,  0.757785570900489 ]
    mass: 24.305000
    reduced_to: 1
  - symbol: Mg # 6
    coordinates: [  0.779282309333636,  0.125000000000000,  0.757785570900489 ]
    mass: 24.305000
    reduced_to: 1
  - symbol: Mg # 7
    coordinates: [  0.279282309333636,  0.625000000000000,  0.757785570900489 ]
    mass: 24.305000
    reduced_to: 1
  - symbol: Mg # 8
    coordinates: [  0.779282309333636,  0.625000000000000,  0.757785570900489 ]
    mass: 24.305000
    reduced_to: 1
  - symbol: Mg # 9
    coordinates: [  0.220717690666364,  0.375000000000000,  0.242214429099511 ]
    mass: 24.305000
    reduced_to: 9
  - symbol: Mg # 10
    coordinates: [  0.720717690666364,  0.375000000000000,  0.242214429099511 ]
    mass: 24.305000
    reduced_to: 9
  - symbol: Mg # 11
    coordinates: [  0.220717690666364,  0.875000000000000,  0.242214429099511 ]
    mass: 24.305000
    reduced_to: 9
  - symbol: Mg # 12
    coordinates: [  0.720717690666364,  0.875000000000000,  0.242214429099511 ]
    mass: 24.305000
    reduced_to: 9
  - symbol: Mg # 13
    coordinates: [  0.220717690666364,  0.375000000000000,  0.742214429099511 ]
    mass: 24.305000
    reduced_to: 9
  - symbol: Mg # 14
    coordinates: [  0.720717690666364,  0.375000000000000,  0.742214429099511 ]
    mass: 24.305000
    reduced_to: 9
  - symbol: Mg # 15
    coordinates: [  0.220717690666364,  0.875000000000000,  0.742214429099511 ]
    mass: 24.305000
    reduced_to: 9
  - symbol: Mg # 16
    coordinates: [  0.720717690666364,  0.875000000000000,  0.742214429099511 ]
    mass: 24.305000
    reduced_to: 9
  - symbol: Mg # 17
    coordinates: [  0.470717690666364,  0.375000000000000,  0.007785570900489 ]
    mass: 24.305000
    reduced_to: 17
  - symbol: Mg # 18
    coordinates: [  0.970717690666364,  0.375000000000000,  0.007785570900489 ]
    mass: 24.305000
    reduced_to: 17
  - symbol: Mg # 19
    coordinates: [  0.470717690666364,  0.875000000000000,  0.007785570900489 ]
    mass: 24.305000
    reduced_to: 17
  - symbol: Mg # 20
    coordinates: [  0.970717690666364,  0.875000000000000,  0.007785570900489 ]
    mass: 24.305000
    reduced_to: 17
  - symbol: Mg # 21
    coordinates: [  0.470717690666364,  0.375000000000000,  0.507785570900489 ]
    mass: 24.305000
    reduced_to: 17
  - symbol: Mg # 22
    coordinates: [  0.970717690666364,  0.375000000000000,  0.507785570900489 ]
    mass: 24.305000
    reduced_to: 17
  - symbol: Mg # 23
    coordinates: [  0.470717690666364,  0.875000000000000,  0.507785570900489 ]
    mass: 24.305000
    reduced_to: 17
  - symbol: Mg # 24
    coordinates: [  0.970717690666364,  0.875000000000000,  0.507785570900489 ]
    mass: 24.305000
    reduced_to: 17
  - symbol: Mg # 25
    coordinates: [  0.029282309333636,  0.125000000000000,  0.492214429099511 ]
    mass: 24.305000
    reduced_to: 25
  - symbol: Mg # 26
    coordinates: [  0.529282309333636,  0.125000000000000,  0.492214429099511 ]
    mass: 24.305000
    reduced_to: 25
  - symbol: Mg # 27
    coordinates: [  0.029282309333636,  0.625000000000000,  0.492214429099511 ]
    mass: 24.305000
    reduced_to: 25
  - symbol: Mg # 28
    coordinates: [  0.529282309333636,  0.625000000000000,  0.492214429099511 ]
    mass: 24.305000
    reduced_to: 25
  - symbol: Mg # 29
    coordinates: [  0.029282309333636,  0.125000000000000,  0.992214429099511 ]
    mass: 24.305000
    reduced_to: 25
  - symbol: Mg # 30
    coordinates: [  0.529282309333636,  0.125000000000000,  0.992214429099511 ]
    mass: 24.305000
    reduced_to: 25
  - symbol: Mg # 31
    coordinates: [  0.029282309333636,  0.625000000000000,  0.992214429099511 ]
    mass: 24.305000
    reduced_to: 25
  - symbol: Mg # 32
    coordinates: [  0.529282309333636,  0.625000000000000,  0.992214429099511 ]
    mass: 24.305000
    reduced_to: 25
  - symbol: Si # 33
    coordinates: [  0.000000000000000,  0.250000000000000,  0.250000000000000 ]
    mass: 28.085500
    reduced_to: 33
  - symbol: Si # 34
    coordinates: [  0.500000000000000,  0.250000000000000,  0.250000000000000 ]
    mass: 28.085500
    reduced_to: 33
  - symbol: Si # 35
    coordinates: [  0.000000000000000,  0.750000000000000,  0.250000000000000 ]
    mass: 28.085500
    reduced_to: 33
  - symbol: Si # 36
    coordinates: [  0.500000000000000,  0.750000000000000,  0.250000000000000 ]
    mass: 28.085500
    reduced_to: 33
  - symbol: Si # 37
    coordinates: [  0.000000000000000,  0.250000000000000,  0.750000000000000 ]
    mass: 28.085500
    reduced_to: 33
  - symbol: Si # 38
    coordinates: [  0.500000000000000,  0.250000000000000,  0.750000000000000 ]
    mass: 28.085500
    reduced_to: 33
  - symbol: Si # 39
    coordinates: [  0.000000000000000,  0.750000000000000,  0.750000000000000 ]
    mass: 28.085500
    reduced_to: 33
  - symbol: Si # 40
    coordinates: [  0.500000000000000,  0.750000000000000,  0.750000000000000 ]
    mass: 28.085500
    reduced_to: 33
  - symbol: Si # 41
    coordinates: [  0.250000000000000,  0.250000000000000,  0.000000000000000 ]
    mass: 28.085500
    reduced_to: 41
  - symbol: Si # 42
    coordinates: [  0.750000000000000,  0.250000000000000,  0.000000000000000 ]
    mass: 28.085500
    reduced_to: 41
  - symbol: Si # 43
    coordinates: [  0.250000000000000,  0.750000000000000,  0.000000000000000 ]
    mass: 28.085500
    reduced_to: 41
  - symbol: Si # 44
    coordinates: [  0.750000000000000,  0.750000000000000,  0.000000000000000 ]
    mass: 28.085500
    reduced_to: 41
  - symbol: Si # 45
    coordinates: [  0.250000000000000,  0.250000000000000,  0.500000000000000 ]
    mass: 28.085500
    reduced_to: 41
  - symbol: Si # 46
    coordinates: [  0.750000000000000,  0.250000000000000,  0.500000000000000 ]
    mass: 28.085500
    reduced_to: 41
  - symbol: Si # 47
    coordinates: [  0.250000000000000,  0.750000000000000,  0.500000000000000 ]
    mass: 28.085500
    reduced_to: 41
  - symbol: Si # 48
    coordinates: [  0.750000000000000,  0.750000000000000,  0.500000000000000 ]
    mass: 28.085500
    reduced_to: 41
  - symbol: Si # 49
    coordinates: [  0.000000000000000,  0.000000000000000,  0.250000000000000 ]
    mass: 28.085500
    reduced_to: 49
  - symbol: Si # 50
    coordinates: [  0.500000000000000,  0.000000000000000,  0.250000000000000 ]
    mass: 28.085500
    reduced_to: 49
  - symbol: Si # 51
    coordinates: [  0.000000000000000,  0.500000000000000,  0.250000000000000 ]
    mass: 28.085500
    reduced_to: 49
  - symbol: Si # 52
    coordinates: [  0.500000000000000,  0.500000000000000,  0.250000000000000 ]
    mass: 28.085500
    reduced_to: 49
  - symbol: Si # 53
    coordinates: [  0.000000000000000,  0.000000000000000,  0.750000000000000 ]
    mass: 28.085500
    reduced_to: 49
  - symbol: Si # 54
    coordinates: [  0.500000000000000,  0.000000000000000,  0.750000000000000 ]
    mass: 28.085500
    reduced_to: 49
  - symbol: Si # 55
    coordinates: [  0.000000000000000,  0.500000000000000,  0.750000000000000 ]
    mass: 28.085500
    reduced_to: 49
  - symbol: Si # 56
    coordinates: [  0.500000000000000,  0.500000000000000,  0.750000000000000 ]
    mass: 28.085500
    reduced_to: 49
  - symbol: Si # 57
    coordinates: [  0.250000000000000,  0.000000000000000,  0.000000000000000 ]
    mass: 28.085500
    reduced_to: 57
  - symbol: Si # 58
    coordinates: [  0.750000000000000,  0.000000000000000,  0.000000000000000 ]
    mass: 28.085500
    reduced_to: 57
  - symbol: Si # 59
    coordinates: [  0.250000000000000,  0.500000000000000,  0.000000000000000 ]
    mass: 28.085500
    reduced_to: 57
  - symbol: Si # 60
    coordinates: [  0.750000000000000,  0.500000000000000,  0.000000000000000 ]
    mass: 28.085500
    reduced_to: 57
  - symbol: Si # 61
    coordinates: [  0.250000000000000,  0.000000000000000,  0.500000000000000 ]
    mass: 28.085500
    reduced_to: 57
  - symbol: Si # 62
    coordinates: [  0.750000000000000,  0.000000000000000,  0.500000000000000 ]
    mass: 28.085500
    reduced_to: 57
  - symbol: Si # 63
    coordinates: [  0.250000000000000,  0.500000000000000,  0.500000000000000 ]
    mass: 28.085500
    reduced_to: 57
  - symbol: Si # 64
    coordinates: [  0.750000000000000,  0.500000000000000,  0.500000000000000 ]
    mass: 28.085500
    reduced_to: 57
  - symbol: O # 65
    coordinates: [  0.232855507749705,  0.125000000000000,  0.052345401968514 ]
    mass: 15.999400
    reduced_to: 65
  - symbol: O # 66
    coordinates: [  0.732855507749705,  0.125000000000000,  0.052345401968514 ]
    mass: 15.999400
    reduced_to: 65
  - symbol: O # 67
    coordinates: [  0.232855507749705,  0.625000000000000,  0.052345401968514 ]
    mass: 15.999400
    reduced_to: 65
  - symbol: O # 68
    coordinates: [  0.732855507749705,  0.625000000000000,  0.052345401968514 ]
    mass: 15.999400
    reduced_to: 65
  - symbol: O # 69
    coordinates: [  0.232855507749705,  0.125000000000000,  0.552345401968514 ]
    mass: 15.999400
    reduced_to: 65
  - symbol: O # 70
    coordinates: [  0.732855507749705,  0.125000000000000,  0.552345401968514 ]
    mass: 15.999400
    reduced_to: 65
  - symbol: O # 71
    coordinates: [  0.232855507749705,  0.625000000000000,  0.552345401968514 ]
    mass: 15.999400
    reduced_to: 65
  - symbol: O # 72
    coordinates: [  0.732855507749705,  0.625000000000000,  0.552345401968514 ]
    mass: 15.999400
    reduced_to: 65
  - symbol: O # 73
    coordinates: [  0.267144492250295,  0.375000000000000,  0.447654598031486 ]
    mass: 15.999400
    reduced_to: 73
  - symbol: O # 74
    coordinates: [  0.767144492250295,  0.375000000000000,  0.447654598031486 ]
    mass: 15.999400
    reduced_to: 73
  - symbol: O # 75
    coordinates: [  0.267144492250295,  0.875000000000000,  0.447654598031486 ]
    mass: 15.999400
    reduced_to: 73
  - symbol: O # 76
    coordinates: [  0.767144492250295,  0.875000000000000,  0.447654598031486 ]
    mass: 15.999400
    reduced_to: 73
  - symbol: O # 77
    coordinates: [  0.267144492250295,  0.375000000000000,  0.947654598031486 ]
    mass: 15.999400
    reduced_to: 73
  - symbol: O # 78
    coordinates: [  0.767144492250295,  0.375000000000000,  0.947654598031486 ]
    mass: 15.999400
    reduced_to: 73
  - symbol: O # 79
    coordinates: [  0.267144492250295,  0.875000000000000,  0.947654598031486 ]
    mass: 15.999400
    reduced_to: 73
  - symbol: O # 80
    coordinates: [  0.767144492250295,  0.875000000000000,  0.947654598031486 ]
    mass: 15.999400
    reduced_to: 73
  - symbol: O # 81
    coordinates: [  0.017144492250295,  0.375000000000000,  0.302345401968514 ]
    mass: 15.999400
    reduced_to: 81
  - symbol: O # 82
    coordinates: [  0.517144492250295,  0.375000000000000,  0.302345401968514 ]
    mass: 15.999400
    reduced_to: 81
  - symbol: O # 83
    coordinates: [  0.017144492250295,  0.875000000000000,  0.302345401968514 ]
    mass: 15.999400
    reduced_to: 81
  - symbol: O # 84
    coordinates: [  0.517144492250295,  0.875000000000000,  0.302345401968514 ]
    mass: 15.999400
    reduced_to: 81
  - symbol: O # 85
    coordinates: [  0.017144492250295,  0.375000000000000,  0.802345401968514 ]
    mass: 15.999400
    reduced_to: 81
  - symbol: O # 86
    coordinates: [  0.517144492250295,  0.375000000000000,  0.802345401968514 ]
    mass: 15.999400
    reduced_to: 81
  - symbol: O # 87
    coordinates: [  0.017144492250295,  0.875000000000000,  0.802345401968514 ]
    mass: 15.999400
    reduced_to: 81
  - symbol: O # 88
    coordinates: [  0.517144492250295,  0.875000000000000,  0.802345401968514 ]
    mass: 15.999400
    reduced_to: 81
  - symbol: O # 89
    coordinates: [  0.482855507749705,  0.125000000000000,  0.197654598031486 ]
    mass: 15.999400
    reduced_to: 89
  - symbol: O # 90
    coordinates: [  0.982855507749705,  0.125000000000000,  0.197654598031486 ]
    mass: 15.999400
    reduced_to: 89
  - symbol: O # 91
    coordinates: [  0.482855507749705,  0.625000000000000,  0.197654598031486 ]
    mass: 15.999400
    reduced_to: 89
  - symbol: O # 92
    coordinates: [  0.982855507749705,  0.625000000000000,  0.197654598031486 ]
    mass: 15.999400
    reduced_to: 89
  - symbol: O # 93
    coordinates: [  0.482855507749705,  0.125000000000000,  0.697654598031486 ]
    mass: 15.999400
    reduced_to: 89
  - symbol: O # 94
    coordinates: [  0.982855507749705,  0.125000000000000,  0.697654598031486 ]
    mass: 15.999400
    reduced_to: 89
  - symbol: O # 95
    coordinates: [  0.482855507749705,  0.625000000000000,  0.697654598031486 ]
    mass: 15.999400
    reduced_to: 89
  - symbol: O # 96
    coordinates: [  0.982855507749705,  0.625000000000000,  0.697654598031486 ]
    mass: 15.999400
    reduced_to: 89
  - symbol: O # 97
    coordinates: [  0.100298433171027,  0.276936789829491,  0.097611101799304 ]
    mass: 15.999400
    reduced_to: 97
  - symbol: O # 98
    coordinates: [  0.600298433171027,  0.276936789829491,  0.097611101799304 ]
    mass: 15.999400
    reduced_to: 97
  - symbol: O # 99
    coordinates: [  0.100298433171027,  0.776936789829491,  0.097611101799304 ]
    mass: 15.999400
    reduced_to: 97
  - symbol: O # 100
    coordinates: [  0.600298433171027,  0.776936789829491,  0.097611101799304 ]
    mass: 15.999400
    reduced_to: 97
  - symbol: O # 101
    coordinates: [  0.100298433171027,  0.276936789829491,  0.597611101799304 ]
    mass: 15.999400
    reduced_to: 97
  - symbol: O # 102
    coordinates: [  0.600298433171027,  0.276936789829491,  0.597611101799304 ]
    mass: 15.999400
    reduced_to: 97
  - symbol: O # 103
    coordinates: [  0.100298433171027,  0.776936789829491,  0.597611101799304 ]
    mass: 15.999400
    reduced_to: 97
  - symbol: O # 104
    coordinates: [  0.600298433171027,  0.776936789829491,  0.597611101799304 ]
    mass: 15.999400
    reduced_to: 97
  - symbol: O # 105
    coordinates: [  0.399701566828973,  0.223063210170509,  0.402388898200696 ]
    mass: 15.999400
    reduced_to: 105
  - symbol: O # 106
    coordinates: [  0.899701566828973,  0.223063210170509,  0.402388898200696 ]
    mass: 15.999400
    reduced_to: 105
  - symbol: O # 107
    coordinates: [  0.399701566828973,  0.723063210170509,  0.402388898200696 ]
    mass: 15.999400
    reduced_to: 105
  - symbol: O # 108
    coordinates: [  0.899701566828973,  0.723063210170509,  0.402388898200696 ]
    mass: 15.999400
    reduced_to: 105
  - symbol: O # 109
    coordinates: [  0.399701566828973,  0.223063210170509,  0.902388898200696 ]
    mass: 15.999400
    reduced_to: 105
  - symbol: O # 110
    coordinates: [  0.899701566828973,  0.223063210170509,  0.902388898200696 ]
    mass: 15.999400
    reduced_to: 105
  - symbol: O # 111
    coordinates: [  0.399701566828973,  0.723063210170509,  0.902388898200696 ]
    mass: 15.999400
    reduced_to: 105
  - symbol: O # 112
    coordinates: [  0.899701566828973,  0.723063210170509,  0.902388898200696 ]
    mass: 15.999400
    reduced_to: 105
  - symbol: O # 113
    coordinates: [  0.149701566828973,  0.223063210170509,  0.347611101799304 ]
    mass: 15.999400
    reduced_to: 113
  - symbol: O # 114
    coordinates: [  0.649701566828973,  0.223063210170509,  0.347611101799304 ]
    mass: 15.999400
    reduced_to: 113
  - symbol: O # 115
    coordinates: [  0.149701566828973,  0.723063210170509,  0.347611101799304 ]
    mass: 15.999400
    reduced_to: 113
  - symbol: O # 116
    coordinates: [  0.649701566828973,  0.723063210170509,  0.347611101799304 ]
    mass: 15.999400
    reduced_to: 113
  - symbol: O # 117
    coordinates: [  0.149701566828973,  0.223063210170509,  0.847611101799304 ]
    mass: 15.999400
    reduced_to: 113
  - symbol: O # 118
    coordinates: [  0.649701566828973,  0.223063210170509,  0.847611101799304 ]
    mass: 15.999400
    reduced_to: 113
  - symbol: O # 119
    coordinates: [  0.149701566828973,  0.723063210170509,  0.847611101799304 ]
    mass: 15.999400
    reduced_to: 113
  - symbol: O # 120
    coordinates: [  0.649701566828973,  0.723063210170509,  0.847611101799304 ]
    mass: 15.999400
    reduced_to: 113
  - symbol: O # 121
    coordinates: [  0.350298433171027,  0.276936789829491,  0.152388898200696 ]
    mass: 15.999400
    reduced_to: 121
  - symbol: O # 122
    coordinates: [  0.850298433171027,  0.276936789829491,  0.152388898200696 ]
    mass: 15.999400
    reduced_to: 121
  - symbol: O # 123
    coordinates: [  0.350298433171027,  0.776936789829491,  0.152388898200696 ]
    mass: 15.999400
    reduced_to: 121
  - symbol: O # 124
    coordinates: [  0.850298433171027,  0.776936789829491,  0.152388898200696 ]
    mass: 15.999400
    reduced_to: 121
  - symbol: O # 125
    coordinates: [  0.350298433171027,  0.276936789829491,  0.652388898200696 ]
    mass: 15.999400
    reduced_to: 121
  - symbol: O # 126
    coordinates: [  0.850298433171027,  0.276936789829491,  0.652388898200696 ]
    mass: 15.999400
    reduced_to: 121
  - symbol: O # 127
    coordinates: [  0.350298433171027,  0.776936789829491,  0.652388898200696 ]
    mass: 15.999400
    reduced_to: 121
  - symbol: O # 128
    coordinates: [  0.850298433171027,  0.776936789829491,  0.652388898200696 ]
    mass: 15.999400
    reduced_to: 121
  - symbol: O # 129
    coordinates: [  0.399701566828973,  0.026936789829491,  0.402388898200696 ]
    mass: 15.999400
    reduced_to: 129
  - symbol: O # 130
    coordinates: [  0.899701566828973,  0.026936789829491,  0.402388898200696 ]
    mass: 15.999400
    reduced_to: 129
  - symbol: O # 131
    coordinates: [  0.399701566828973,  0.526936789829491,  0.402388898200696 ]
    mass: 15.999400
    reduced_to: 129
  - symbol: O # 132
    coordinates: [  0.899701566828973,  0.526936789829491,  0.402388898200696 ]
    mass: 15.999400
    reduced_to: 129
  - symbol: O # 133
    coordinates: [  0.399701566828973,  0.026936789829491,  0.902388898200696 ]
    mass: 15.999400
    reduced_to: 129
  - symbol: O # 134
    coordinates: [  0.899701566828973,  0.026936789829491,  0.902388898200696 ]
    mass: 15.999400
    reduced_to: 129
  - symbol: O # 135
    coordinates: [  0.399701566828973,  0.526936789829491,  0.902388898200696 ]
    mass: 15.999400
    reduced_to: 129
  - symbol: O # 136
    coordinates: [  0.899701566828973,  0.526936789829491,  0.902388898200696 ]
    mass: 15.999400
    reduced_to: 129
  - symbol: O # 137
    coordinates: [  0.100298433171027,  0.473063210170509,  0.097611101799304 ]
    mass: 15.999400
    reduced_to: 137
  - symbol: O # 138
    coordinates: [  0.600298433171027,  0.473063210170509,  0.097611101799304 ]
    mass: 15.999400
    reduced_to: 137
  - symbol: O # 139
    coordinates: [  0.100298433171027,  0.973063210170509,  0.097611101799304 ]
    mass: 15.999400
    reduced_to: 137
  - symbol: O # 140
    coordinates: [  0.600298433171027,  0.973063210170509,  0.097611101799304 ]
    mass: 15.999400
    reduced_to: 137
  - symbol: O # 141
    coordinates: [  0.100298433171027,  0.473063210170509,  0.597611101799304 ]
    mass: 15.999400
    reduced_to: 137
  - symbol: O # 142
    coordinates: [  0.600298433171027,  0.473063210170509,  0.597611101799304 ]
    mass: 15.999400
    reduced_to: 137
  - symbol: O # 143
    coordinates: [  0.100298433171027,  0.973063210170509,  0.597611101799304 ]
    mass: 15.999400
    reduced_to: 137
  - symbol: O # 144
    coordinates: [  0.600298433171027,  0.973063210170509,  0.597611101799304 ]
    mass: 15.999400
    reduced_to: 137
  - symbol: O # 145
    coordinates: [  0.350298433171027,  0.473063210170509,  0.152388898200696 ]
    mass: 15.999400
    reduced_to: 145
  - symbol: O # 146
    coordinates: [  0.850298433171027,  0.473063210170509,  0.152388898200696 ]
    mass: 15.999400
    reduced_to: 145
  - symbol: O # 147
    coordinates: [  0.350298433171027,  0.973063210170509,  0.152388898200696 ]
    mass: 15.999400
    reduced_to: 145
  - symbol: O # 148
    coordinates: [  0.850298433171027,  0.973063210170509,  0.152388898200696 ]
    mass: 15.999400
    reduced_to: 145
  - symbol: O # 149
    coordinates: [  0.350298433171027,  0.473063210170509,  0.652388898200696 ]
    mass: 15.999400
    reduced_to: 145
  - symbol: O # 150
    coordinates: [  0.850298433171027,  0.473063210170509,  0.652388898200696 ]
    mass: 15.999400
    reduced_to: 145
  - symbol: O # 151
    coordinates: [  0.350298433171027,  0.973063210170509,  0.652388898200696 ]
    mass: 15.999400
    reduced_to: 145
  - symbol: O # 152
    coordinates: [  0.850298433171027,  0.973063210170509,  0.652388898200696 ]
    mass: 15.999400
    reduced_to: 145
  - symbol: O # 153
    coordinates: [  0.149701566828973,  0.026936789829491,  0.347611101799304 ]
    mass: 15.999400
    reduced_to: 153
  - symbol: O # 154
    coordinates: [  0.649701566828973,  0.026936789829491,  0.347611101799304 ]
    mass: 15.999400
    reduced_to: 153
  - symbol: O # 155
    coordinates: [  0.149701566828973,  0.526936789829491,  0.347611101799304 ]
    mass: 15.999400
    reduced_to: 153
  - symbol: O # 156
    coordinates: [  0.649701566828973,  0.526936789829491,  0.347611101799304 ]
    mass: 15.999400
    reduced_to: 153
  - symbol: O # 157
    coordinates: [  0.149701566828973,  0.026936789829491,  0.847611101799304 ]
    mass: 15.999400
    reduced_to: 153
  - symbol: O # 158
    coordinates: [  0.649701566828973,  0.026936789829491,  0.847611101799304 ]
    mass: 15.999400
    reduced_to: 153
  - symbol: O # 159
    coordinates: [  0.149701566828973,  0.526936789829491,  0.847611101799304 ]
    mass: 15.999400
    reduced_to: 153
  - symbol: O # 160
    coordinates: [  0.649701566828973,  0.526936789829491,  0.847611101799304 ]
    mass: 15.999400
    reduced_to: 153

displacements:
- atom:    1
  displacement:
    [   0.0058318135898890,  0.0081234198619046,  0.0000000000000000 ]
- atom:    1
  displacement:
    [  -0.0058318135898890, -0.0081234198619046,  0.0000000000000000 ]
- atom:    1
  displacement:
    [   0.0000000000000000,  0.0000000000000000,  0.0100000000000000 ]
- atom:    1
  displacement:
    [   0.0000000000000000,  0.0000000000000000, -0.0100000000000000 ]
- atom:   33
  displacement:
    [   0.0100000000000000,  0.0000000000000000,  0.0000000000000000 ]
- atom:   33
  displacement:
    [   0.0000000000000000,  0.0100000000000000,  0.0000000000000000 ]
- atom:   33
  displacement:
    [   0.0000000000000000,  0.0000000000000000,  0.0100000000000000 ]
- atom:   65
  displacement:
    [   0.0058318135898890,  0.0081234198619046,  0.0000000000000000 ]
- atom:   65
  displacement:
    [  -0.0058318135898890, -0.0081234198619046,  0.0000000000000000 ]
- atom:   65
  displacement:
    [   0.0000000000000000,  0.0000000000000000,  0.0100000000000000 ]
- atom:   65
  displacement:
    [   0.0000000000000000,  0.0000000000000000, -0.0100000000000000 ]